
     Program PWSCF v.6.1 (gpu tag v1.0) starts on  4Dec2018 at  4:14:28 

     This program is part of the open-source Quantum ESPRESSO suite
     for quantum simulation of materials; please cite
         "P. Giannozzi et al., J. Phys.:Condens. Matter 21 395502 (2009);
          URL http://www.quantum-espresso.org", 
     in publications or presentations arising from this work. More details at
     http://www.quantum-espresso.org/quote

     Parallel version (MPI & OpenMP), running on       1 processor cores
     Number of MPI processes:                 1
     Threads/MPI process:                     1

     GPU accelerated version

     Waiting for input...
     Reading input from standard input
     Message from routine read_cards :
     DEPRECATED: no units specified in CELL_PARAMETERS card

     Current dimensions of program PWSCF are:
     Max number of different atomic species (ntypx) = 10
     Max number of k-points (npk) =  40000
     Max angular momentum in pseudopotentials (lmaxx) =  3

     Subspace diagonalization in iterative solution of the eigenvalue problem:
     a serial algorithm will be used

 
     G-vector sticks info
     --------------------
     sticks:   dense  smooth     PW     G-vecs:    dense   smooth      PW
     Sum         721     721    235                16823    16823    3087
 


     bravais-lattice index     =            0
     lattice parameter (alat)  =       4.6415  a.u.
     unit-cell volume          =     762.0804 (a.u.)^3
     number of atoms/cell      =            9
     number of atomic types    =            2
     number of electrons       =        48.00
     number of Kohn-Sham states=           24
     kinetic-energy cutoff     =      30.0000  Ry
     charge density cutoff     =     120.0000  Ry
     convergence threshold     =      1.0E-10
     mixing beta               =       0.7000
     number of iterations used =            8  plain     mixing
     Exchange-correlation      =  SLA  PW   PBX  PBC ( 1  4  3  4 0 0)

     celldm(1)=   4.641538  celldm(2)=   0.000000  celldm(3)=   0.000000
     celldm(4)=   0.000000  celldm(5)=   0.000000  celldm(6)=   0.000000

     crystal axes: (cart. coord. in units of alat)
               a(1) = (   1.000000  -1.732058   0.000000 )  
               a(2) = (   1.000000   1.732058   0.000000 )  
               a(3) = (   0.000000   0.000000   2.200000 )  

     reciprocal axes: (cart. coord. in units 2 pi/alat)
               b(1) = (  0.500000 -0.288674  0.000000 )  
               b(2) = (  0.500000  0.288674 -0.000000 )  
               b(3) = ( -0.000000  0.000000  0.454545 )  


     PseudoPot. # 1 for Si read from file:
     ./pseudo/Si.pbe-tm-gipaw.UPF
     MD5 check sum: 744ed8b2dc623e0d56f5dfff7afbe95f
     Pseudo is Norm-conserving, Zval =  4.0
     Generated by new atomic code, or converted to UPF format
     Using radial grid of 1141 points,  2 beta functions with: 
                l(1) =   0
                l(2) =   1

     PseudoPot. # 2 for O  read from file:
     ./pseudo/O.pbe-tm-gipaw.UPF
     MD5 check sum: 12b6f10dd62b8d732352127d12073df4
     Pseudo is Norm-conserving, Zval =  6.0
     Generated by new atomic code, or converted to UPF format
     Using radial grid of 1095 points,  1 beta functions with: 
                l(1) =   0

     atomic species   valence    mass     pseudopotential
        Si             4.00    28.08600     Si( 1.00)
        O              6.00    15.99900     O ( 1.00)

      2 Sym. Ops. (no inversion) found


                                    s                        frac. trans.

      isym =  1     identity                                     

 cryst.   s( 1) = (     1          0          0      )
                  (     0          1          0      )
                  (     0          0          1      )

 cart.    s( 1) = (  1.0000000  0.0000000  0.0000000 )
                  (  0.0000000  1.0000000  0.0000000 )
                  (  0.0000000  0.0000000  1.0000000 )


      isym =  2     180 deg rotation - cart. axis [1,0,0]        

 cryst.   s( 2) = (     0          1          0      )
                  (     1          0          0      )
                  (     0          0         -1      )

 cart.    s( 2) = (  1.0000000  0.0000000  0.0000000 )
                  (  0.0000000 -1.0000000  0.0000000 )
                  (  0.0000000  0.0000000 -1.0000000 )


   Cartesian axes

     site n.     atom                  positions (alat units)
         1           Si  tau(   1) = (   0.4701000  -0.8142405   0.7333333  )
         2           Si  tau(   2) = (   0.4701000   0.8142405   1.4666667  )
         3           Si  tau(   3) = (  -0.9402000  -0.0000000   0.0000000  )
         4           O   tau(   4) = (   0.6813000  -0.2537465   0.4716800  )
         5           O   tau(   5) = (  -0.1209000   0.7168988   1.2050133  )
         6           O   tau(   6) = (  -0.5604000  -0.4631523   1.9383467  )
         7           O   tau(   7) = (   0.6813000   0.2537465  -0.4716800  )
         8           O   tau(   8) = (  -0.1209000  -0.7168988   0.9949867  )
         9           O   tau(   9) = (  -0.5604000   0.4631523   0.2616533  )

   Crystallographic axes

     site n.     atom                  positions (cryst. coord.)
         1           Si  tau(   1) = (  0.4701000  0.0000000  0.3333333  )
         2           Si  tau(   2) = (  0.0000000  0.4701000  0.6666667  )
         3           Si  tau(   3) = ( -0.4701000 -0.4701000  0.0000000  )
         4           O   tau(   4) = (  0.4139000  0.2674000  0.2144000  )
         5           O   tau(   5) = ( -0.2674000  0.1465000  0.5477333  )
         6           O   tau(   6) = ( -0.1465000 -0.4139000  0.8810667  )
         7           O   tau(   7) = (  0.2674000  0.4139000 -0.2144000  )
         8           O   tau(   8) = (  0.1465000 -0.2674000  0.4522667  )
         9           O   tau(   9) = ( -0.4139000 -0.1465000  0.1189333  )

     number of k points=    10
                       cart. coord. in units 2pi/alat
        k(    1) = (   0.1666667   0.0000000   0.0757576), wk =   0.2962963
        k(    2) = (   0.1666667   0.0000000  -0.2272727), wk =   0.1481481
        k(    3) = (  -0.1666667  -0.1924493   0.0757576), wk =   0.2962963
        k(    4) = (  -0.1666667  -0.1924493  -0.2272727), wk =   0.2962963
        k(    5) = (  -0.0000000  -0.0962246   0.0757576), wk =   0.1481481
        k(    6) = (  -0.0000000  -0.0962246  -0.2272727), wk =   0.1481481
        k(    7) = (  -0.5000000   0.0000000   0.0757576), wk =   0.1481481
        k(    8) = (  -0.5000000   0.0000000  -0.2272727), wk =   0.0740741
        k(    9) = (   0.1666667  -0.1924493  -0.0757576), wk =   0.2962963
        k(   10) = (   0.0000000  -0.0962246  -0.0757576), wk =   0.1481481

                       cryst. coord.
        k(    1) = (   0.1666667   0.1666667   0.1666667), wk =   0.2962963
        k(    2) = (   0.1666667   0.1666667  -0.5000000), wk =   0.1481481
        k(    3) = (   0.1666667  -0.5000000   0.1666667), wk =   0.2962963
        k(    4) = (   0.1666667  -0.5000000  -0.5000000), wk =   0.2962963
        k(    5) = (   0.1666667  -0.1666667   0.1666667), wk =   0.1481481
        k(    6) = (   0.1666667  -0.1666667  -0.5000000), wk =   0.1481481
        k(    7) = (  -0.5000000  -0.5000000   0.1666667), wk =   0.1481481
        k(    8) = (  -0.5000000  -0.5000000  -0.5000000), wk =   0.0740741
        k(    9) = (   0.5000000  -0.1666667  -0.1666667), wk =   0.2962963
        k(   10) = (   0.1666667  -0.1666667  -0.1666667), wk =   0.1481481

     Dense  grid:    16823 G-vectors     FFT dimensions: (  36,  36,  36)

     Estimated max dynamical RAM per process >      22.69MB
     Only 1 process per pool detected. Reducing FFT batch sizes...

     Initial potential from superposition of free atoms

     starting charge   40.41467, renormalised to   48.00000
     Starting wfc are   51 randomized atomic wfcs

     total cpu time spent up to now is       48.0 secs

     per-process dynamical memory:   762.3 Mb

     Self-consistent Calculation

     iteration #  1     ecut=    30.00 Ry     beta=0.70
     Davidson diagonalization with overlap
     ethr =  1.00E-04,  avg # of iterations =  4.2

     total cpu time spent up to now is       48.7 secs

     total energy              =    -211.81581201 Ry
     Harris-Foulkes estimate   =    -212.90854973 Ry
     estimated scf accuracy    <       1.83182016 Ry

     iteration #  2     ecut=    30.00 Ry     beta=0.70
     Davidson diagonalization with overlap
     ethr =  3.82E-03,  avg # of iterations =  2.0

     total cpu time spent up to now is       49.2 secs

     total energy              =    -212.23146631 Ry
     Harris-Foulkes estimate   =    -212.56378217 Ry
     estimated scf accuracy    <       0.65094828 Ry

     iteration #  3     ecut=    30.00 Ry     beta=0.70
     Davidson diagonalization with overlap
     ethr =  1.36E-03,  avg # of iterations =  2.0

     total cpu time spent up to now is       49.6 secs

     total energy              =    -212.36255102 Ry
     Harris-Foulkes estimate   =    -212.36302819 Ry
     estimated scf accuracy    <       0.01486625 Ry

     iteration #  4     ecut=    30.00 Ry     beta=0.70
     Davidson diagonalization with overlap
     ethr =  3.10E-05,  avg # of iterations =  2.0

     total cpu time spent up to now is       49.9 secs

     total energy              =    -212.36396097 Ry
     Harris-Foulkes estimate   =    -212.36399575 Ry
     estimated scf accuracy    <       0.00017288 Ry

     iteration #  5     ecut=    30.00 Ry     beta=0.70
     Davidson diagonalization with overlap
     ethr =  3.60E-07,  avg # of iterations =  3.0

     total cpu time spent up to now is       50.5 secs

     total energy              =    -212.36405392 Ry
     Harris-Foulkes estimate   =    -212.36406178 Ry
     estimated scf accuracy    <       0.00003466 Ry

     iteration #  6     ecut=    30.00 Ry     beta=0.70
     Davidson diagonalization with overlap
     ethr =  7.22E-08,  avg # of iterations =  2.0

     total cpu time spent up to now is       50.9 secs

     total energy              =    -212.36406106 Ry
     Harris-Foulkes estimate   =    -212.36406051 Ry
     estimated scf accuracy    <       0.00000045 Ry

     iteration #  7     ecut=    30.00 Ry     beta=0.70
     Davidson diagonalization with overlap
     ethr =  9.39E-10,  avg # of iterations =  2.0

     total cpu time spent up to now is       51.3 secs

     total energy              =    -212.36406115 Ry
     Harris-Foulkes estimate   =    -212.36406118 Ry
     estimated scf accuracy    <       0.00000006 Ry

     iteration #  8     ecut=    30.00 Ry     beta=0.70
     Davidson diagonalization with overlap
     ethr =  1.35E-10,  avg # of iterations =  2.0

     total cpu time spent up to now is       51.7 secs

     total energy              =    -212.36406116 Ry
     Harris-Foulkes estimate   =    -212.36406116 Ry
     estimated scf accuracy    <          2.4E-09 Ry

     iteration #  9     ecut=    30.00 Ry     beta=0.70
     Davidson diagonalization with overlap
     ethr =  4.90E-12,  avg # of iterations =  2.0

     total cpu time spent up to now is       52.1 secs

     total energy              =    -212.36406116 Ry
     Harris-Foulkes estimate   =    -212.36406116 Ry
     estimated scf accuracy    <          3.7E-10 Ry

     iteration # 10     ecut=    30.00 Ry     beta=0.70
     Davidson diagonalization with overlap
     ethr =  7.77E-13,  avg # of iterations =  2.0

     total cpu time spent up to now is       52.5 secs

     End of self-consistent calculation

          k = 0.1667 0.0000 0.0758 (  2109 PWs)   bands (ev):

   -17.7094 -16.9412 -16.4651 -16.0471 -16.0230 -15.9940  -5.7461  -4.7189
    -3.0561  -2.5168  -2.2884  -1.9958  -0.2490   0.1580   0.3513   0.6397
     0.9221   1.4236   1.5838   1.8439   2.1374   2.2889   2.8183   3.1107

     occupation numbers 
     1.0000   1.0000   1.0000   1.0000   1.0000   1.0000   1.0000   1.0000
     1.0000   1.0000   1.0000   1.0000   1.0000   1.0000   1.0000   1.0000
     1.0000   1.0000   1.0000   1.0000   1.0000   1.0000   1.0000   1.0000

          k = 0.1667 0.0000-0.2273 (  2120 PWs)   bands (ev):

   -17.4844 -17.3119 -16.3209 -16.0533 -16.0120 -16.0034  -6.0186  -3.9969
    -3.5950  -2.4942  -2.4013  -1.9048  -0.2285  -0.1185   0.5440   0.6029
     0.9846   1.4281   1.6214   1.8282   1.9798   2.5124   2.7544   2.9111

     occupation numbers 
     1.0000   1.0000   1.0000   1.0000   1.0000   1.0000   1.0000   1.0000
     1.0000   1.0000   1.0000   1.0000   1.0000   1.0000   1.0000   1.0000
     1.0000   1.0000   1.0000   1.0000   1.0000   1.0000   1.0000   1.0000

          k =-0.1667-0.1924 0.0758 (  2119 PWs)   bands (ev):

   -17.5049 -17.0571 -16.5715 -16.0597 -16.0386 -16.0061  -5.6188  -4.5043
    -3.4190  -2.5310  -2.3110  -1.7707  -0.2271  -0.0412   0.2090   0.6864
     0.9415   1.2225   1.5918   1.7425   2.0265   2.4400   2.7599   3.0907

     occupation numbers 
     1.0000   1.0000   1.0000   1.0000   1.0000   1.0000   1.0000   1.0000
     1.0000   1.0000   1.0000   1.0000   1.0000   1.0000   1.0000   1.0000
     1.0000   1.0000   1.0000   1.0000   1.0000   1.0000   1.0000   1.0000

          k =-0.1667-0.1924-0.2273 (  2116 PWs)   bands (ev):

   -17.4481 -17.0727 -16.6105 -16.0778 -16.0250 -16.0180  -5.4774  -4.4759
    -3.6948  -2.3744  -2.2122  -2.0342  -0.3324  -0.1789   0.4040   0.8191
     1.0423   1.3149   1.8410   1.9549   2.1381   2.3401   2.5524   2.8351

     occupation numbers 
     1.0000   1.0000   1.0000   1.0000   1.0000   1.0000   1.0000   1.0000
     1.0000   1.0000   1.0000   1.0000   1.0000   1.0000   1.0000   1.0000
     1.0000   1.0000   1.0000   1.0000   1.0000   1.0000   1.0000   1.0000

          k =-0.0000-0.0962 0.0758 (  2094 PWs)   bands (ev):

   -17.8424 -16.9118 -16.3476 -16.0264 -16.0068 -15.9827  -5.8993  -4.7596
    -2.8119  -2.5241  -2.3351  -2.0834  -0.1733   0.2029   0.3563   0.7064
     1.1498   1.5226   1.5926   1.7777   2.1661   2.4654   2.8204   3.1014

     occupation numbers 
     1.0000   1.0000   1.0000   1.0000   1.0000   1.0000   1.0000   1.0000
     1.0000   1.0000   1.0000   1.0000   1.0000   1.0000   1.0000   1.0000
     1.0000   1.0000   1.0000   1.0000   1.0000   1.0000   1.0000   1.0000

          k =-0.0000-0.0962-0.2273 (  2122 PWs)   bands (ev):

   -17.5177 -17.4574 -16.1196 -16.0337 -16.0066 -15.9823  -6.3505  -3.6807
    -3.5166  -2.6024  -2.5886  -1.8074  -0.0323   0.0006   0.3812   0.8233
     0.8700   1.3334   1.4122   1.6495   1.8995   2.7367   2.8382   3.0460

     occupation numbers 
     1.0000   1.0000   1.0000   1.0000   1.0000   1.0000   1.0000   1.0000
     1.0000   1.0000   1.0000   1.0000   1.0000   1.0000   1.0000   1.0000
     1.0000   1.0000   1.0000   1.0000   1.0000   1.0000   1.0000   1.0000

          k =-0.5000 0.0000 0.0758 (  2130 PWs)   bands (ev):

   -17.5013 -17.0711 -16.5590 -16.0644 -16.0365 -16.0088  -5.6064  -4.5918
    -3.2860  -2.5765  -2.3613  -1.7994  -0.2721  -0.1500   0.3391   0.6438
     0.9765   1.1633   1.4300   1.8730   2.0654   2.2880   2.7531   3.0539

     occupation numbers 
     1.0000   1.0000   1.0000   1.0000   1.0000   1.0000   1.0000   1.0000
     1.0000   1.0000   1.0000   1.0000   1.0000   1.0000   1.0000   1.0000
     1.0000   1.0000   1.0000   1.0000   1.0000   1.0000   1.0000   1.0000

          k =-0.5000 0.0000-0.2273 (  2096 PWs)   bands (ev):

   -17.4528 -17.0463 -16.6367 -16.0813 -16.0212 -16.0045  -5.4778  -4.4886
    -3.6024  -2.4200  -2.1022  -2.0080  -0.2499  -0.2414   0.5751   0.8944
     0.9193   1.4512   1.8014   1.9357   2.2154   2.2984   2.5976   2.9646

     occupation numbers 
     1.0000   1.0000   1.0000   1.0000   1.0000   1.0000   1.0000   1.0000
     1.0000   1.0000   1.0000   1.0000   1.0000   1.0000   1.0000   1.0000
     1.0000   1.0000   1.0000   1.0000   1.0000   1.0000   1.0000   1.0000

          k = 0.1667-0.1924-0.0758 (  2119 PWs)   bands (ev):

   -17.5029 -17.0647 -16.5609 -16.0625 -16.0400 -16.0066  -5.6199  -4.4972
    -3.4146  -2.5183  -2.3168  -1.8034  -0.2737  -0.0179   0.2311   0.7559
     0.9471   1.1968   1.4587   1.8124   2.1032   2.3771   2.8155   3.0442

     occupation numbers 
     1.0000   1.0000   1.0000   1.0000   1.0000   1.0000   1.0000   1.0000
     1.0000   1.0000   1.0000   1.0000   1.0000   1.0000   1.0000   1.0000
     1.0000   1.0000   1.0000   1.0000   1.0000   1.0000   1.0000   1.0000

          k = 0.0000-0.0962-0.0758 (  2094 PWs)   bands (ev):

   -17.8418 -16.9066 -16.3574 -16.0278 -15.9972 -15.9870  -5.9007  -4.7584
    -2.8240  -2.5323  -2.3558  -2.0667  -0.1346   0.1978   0.3412   0.6755
     1.1056   1.5873   1.6577   1.7915   2.1980   2.3753   2.8244   3.1008

     occupation numbers 
     1.0000   1.0000   1.0000   1.0000   1.0000   1.0000   1.0000   1.0000
     1.0000   1.0000   1.0000   1.0000   1.0000   1.0000   1.0000   1.0000
     1.0000   1.0000   1.0000   1.0000   1.0000   1.0000   1.0000   1.0000

     highest occupied level (ev):     3.1107

!    total energy              =    -212.36406116 Ry
     Harris-Foulkes estimate   =    -212.36406116 Ry
     estimated scf accuracy    <          2.7E-11 Ry

     The total energy is the sum of the following terms:

     one-electron contribution =     -96.69078800 Ry
     hartree contribution      =      73.25955680 Ry
     xc contribution           =     -49.97086556 Ry
     ewald contribution        =    -138.96196441 Ry

     convergence has been achieved in  10 iterations

     Forces acting on atoms (cartesian axes, Ry/au):

     atom    1 type  1   force =     0.00319094   -0.00597709   -0.00020915
     atom    2 type  1   force =     0.00319094    0.00597709    0.00020915
     atom    3 type  1   force =    -0.00668508   -0.00000000    0.00000000
     atom    4 type  2   force =    -0.02854488    0.04801359    0.02804929
     atom    5 type  2   force =    -0.02708220   -0.04877750    0.02862838
     atom    6 type  2   force =     0.05577868    0.00040129    0.02920825
     atom    7 type  2   force =    -0.02854488   -0.04801359   -0.02804929
     atom    8 type  2   force =    -0.02708220    0.04877750   -0.02862838
     atom    9 type  2   force =     0.05577868   -0.00040129   -0.02920825
     The non-local contrib.  to forces
     atom    1 type  1   force =    -0.00380549    0.00598783    0.00023793
     atom    2 type  1   force =    -0.00380549   -0.00598783   -0.00023793
     atom    3 type  1   force =     0.00694872    0.00000000    0.00000000
     atom    4 type  2   force =     0.37124551   -0.73746024   -0.48572806
     atom    5 type  2   force =     0.45393807    0.69052867   -0.48557627
     atom    6 type  2   force =    -0.82417116    0.04757732   -0.48486932
     atom    7 type  2   force =     0.37124551    0.73746024    0.48572806
     atom    8 type  2   force =     0.45393807   -0.69052867    0.48557627
     atom    9 type  2   force =    -0.82417116   -0.04757732    0.48486932
     The ionic contribution  to forces
     atom    1 type  1   force =    -0.02624446    0.04549851   -0.00003980
     atom    2 type  1   force =    -0.02624446   -0.04549851    0.00003980
     atom    3 type  1   force =     0.05254218   -0.00000000   -0.00000000
     atom    4 type  2   force =    -2.01280941    2.87798355    1.63888123
     atom    5 type  2   force =    -1.48603190   -3.18215155    1.63886102
     atom    6 type  2   force =     3.49881469    0.30413529    1.63885390
     atom    7 type  2   force =    -2.01280941   -2.87798355   -1.63888123
     atom    8 type  2   force =    -1.48603190    3.18215155   -1.63886102
     atom    9 type  2   force =     3.49881469   -0.30413529   -1.63885390
     The local contribution  to forces
     atom    1 type  1   force =     0.03324100   -0.05746269   -0.00040634
     atom    2 type  1   force =     0.03324100    0.05746269    0.00040634
     atom    3 type  1   force =    -0.06617720   -0.00000000   -0.00000000
     atom    4 type  2   force =     1.61301848   -2.09251404   -1.12510319
     atom    5 type  2   force =     1.00501425    2.44284893   -1.12465822
     atom    6 type  2   force =    -2.61886718   -0.35131277   -1.12478018
     atom    7 type  2   force =     1.61301848    2.09251404    1.12510319
     atom    8 type  2   force =     1.00501425   -2.44284893    1.12465822
     atom    9 type  2   force =    -2.61886718    0.35131277    1.12478018
     The core correction contribution to forces
     atom    1 type  1   force =     0.00000000    0.00000000    0.00000000
     atom    2 type  1   force =     0.00000000    0.00000000    0.00000000
     atom    3 type  1   force =     0.00000000    0.00000000    0.00000000
     atom    4 type  2   force =     0.00000000    0.00000000    0.00000000
     atom    5 type  2   force =     0.00000000    0.00000000    0.00000000
     atom    6 type  2   force =     0.00000000    0.00000000    0.00000000
     atom    7 type  2   force =     0.00000000    0.00000000    0.00000000
     atom    8 type  2   force =     0.00000000    0.00000000    0.00000000
     atom    9 type  2   force =     0.00000000    0.00000000    0.00000000
     The Hubbard contrib.    to forces
     atom    1 type  1   force =     0.00000000    0.00000000    0.00000000
     atom    2 type  1   force =     0.00000000    0.00000000    0.00000000
     atom    3 type  1   force =     0.00000000    0.00000000    0.00000000
     atom    4 type  2   force =     0.00000000    0.00000000    0.00000000
     atom    5 type  2   force =     0.00000000    0.00000000    0.00000000
     atom    6 type  2   force =     0.00000000    0.00000000    0.00000000
     atom    7 type  2   force =     0.00000000    0.00000000    0.00000000
     atom    8 type  2   force =     0.00000000    0.00000000    0.00000000
     atom    9 type  2   force =     0.00000000    0.00000000    0.00000000
     The SCF correction term to forces
     atom    1 type  1   force =    -0.00000005   -0.00000074   -0.00000094
     atom    2 type  1   force =    -0.00000005    0.00000074    0.00000094
     atom    3 type  1   force =     0.00000128   -0.00000000   -0.00000000
     atom    4 type  2   force =     0.00000060    0.00000431   -0.00000070
     atom    5 type  2   force =    -0.00000256   -0.00000355    0.00000186
     atom    6 type  2   force =     0.00000239    0.00000145    0.00000385
     atom    7 type  2   force =     0.00000060   -0.00000431    0.00000070
     atom    8 type  2   force =    -0.00000256    0.00000355   -0.00000186
     atom    9 type  2   force =     0.00000239   -0.00000145   -0.00000385

     Total force =     0.154091     Total SCF correction =     0.000012

     Writing output data file quartz.save
 
     init_run     :      0.49s CPU      1.01s WALL (       1 calls)
     electrons    :      3.10s CPU      4.48s WALL (       1 calls)
     forces       :      0.01s CPU      0.02s WALL (       1 calls)

     Called by forces:
     forces:us    :      0.01s CPU      0.01s WALL (       1 calls)
     forces:lc    :      0.00s CPU      0.00s WALL (       1 calls)
     forces:cc    :      0.00s CPU      0.00s WALL (       1 calls)
     forces:ew    :      0.00s CPU      0.00s WALL (       1 calls)
     forces:corr  :      0.00s CPU      0.00s WALL (       1 calls)

     Called by init_run:
     wfcinit      :      0.28s CPU      0.51s WALL (       1 calls)
     wfcinit:atom :      0.01s CPU      0.01s WALL (      10 calls)
     wfcinit:wfcr :      0.17s CPU      0.25s WALL (      10 calls)
     potinit      :      0.14s CPU      0.40s WALL (       1 calls)

     Called by electrons:
     c_bands      :      2.72s CPU      3.89s WALL (      10 calls)
     sum_band     :      0.30s CPU      0.36s WALL (      10 calls)
     v_of_rho     :      0.05s CPU      0.20s WALL (      11 calls)
     v_h          :      0.00s CPU      0.01s WALL (      11 calls)
     v_xc         :      0.04s CPU      0.18s WALL (      11 calls)
     mix_rho      :      0.02s CPU      0.03s WALL (      10 calls)

     Called by c_bands:
     init_us_2    :      0.08s CPU      0.11s WALL (     220 calls)
     cegterg      :      2.62s CPU      3.64s WALL (     100 calls)

     Called by sum_band:

     Called by *egterg:
     h_psi        :      1.52s CPU      2.01s WALL (     342 calls)
     g_psi        :      0.00s CPU      0.00s WALL (     232 calls)
     cdiaghg      :      0.99s CPU      1.31s WALL (     332 calls)
     cegterg:over :      0.04s CPU      0.05s WALL (     232 calls)
     cegterg:upda :      0.01s CPU      0.01s WALL (     232 calls)
     cegterg:last :      0.00s CPU      0.00s WALL (     110 calls)

     Called by h_psi:
     h_psi:pot    :      1.52s CPU      2.01s WALL (     342 calls)
     h_psi:calbec :      0.85s CPU      1.23s WALL (     342 calls)
     vloc_psi     :      0.60s CPU      0.67s WALL (     342 calls)
     add_vuspsi   :      0.07s CPU      0.10s WALL (     342 calls)

     General routines
     calbec       :      0.85s CPU      1.24s WALL (     382 calls)
     fft          :      0.15s CPU      0.41s WALL (     122 calls)
     fftw         :      0.64s CPU      0.71s WALL (    4588 calls)
     davcio       :      0.00s CPU      0.00s WALL (      10 calls)
 
     Parallel routines
     fft_scatter  :      0.01s CPU      0.01s WALL (     122 calls)
 
     PWSCF        :      3.69s CPU     52.52s WALL

 
   This run was terminated on:   4:14:34   4Dec2018            

=------------------------------------------------------------------------------=
   JOB DONE.
=------------------------------------------------------------------------------=
